ITEM: TIMESTEP
300
ITEM: NUMBER OF ATOMS
128
ITEM: BOX BOUNDS pp pp pp
7.9970980936073330e-03 1.1472002901906393e+01
7.9970980936073330e-03 1.1472002901906393e+01
7.9970980936073330e-03 1.1472002901906393e+01
ITEM: ATOMS id type xs ys zs
2 1 0.154026 0.156444 0.0876359
4 1 0.381261 0.131457 0.0927037
6 1 0.622873 0.136722 0.118586
1 1 0.992822 0.0217234 0.00124737
8 1 0.853078 0.136596 0.140597
10 1 0.152279 0.381488 0.106623
12 1 0.387055 0.373188 0.119887
14 1 0.612725 0.363146 0.131969
9 1 0.977665 0.261786 0.0165502
16 1 0.847077 0.365511 0.159476
23 1 0.73709 0.488191 0.00663892
22 1 0.614829 0.596416 0.159529
17 1 0.971765 0.489837 0.0356019
24 1 0.834816 0.585538 0.169108
18 1 0.14672 0.615879 0.127031
20 1 0.386587 0.603419 0.142032
27 1 0.272134 0.741497 0.00192778
29 1 0.512593 0.727497 0.0166703
31 1 0.740331 0.721914 0.0345073
25 1 0.960362 0.709688 0.0439392
26 1 0.101678 0.850127 0.12681
3 1 0.226505 0.976735 0.000752637
28 1 0.406261 0.904084 0.0871878
30 1 0.632514 0.900495 0.106072
32 1 0.86701 0.896037 0.125409
33 1 0.0287204 0.0315709 0.212788
34 1 0.137399 0.123307 0.369267
35 1 0.256926 0.00637101 0.217013
36 1 0.362506 0.112138 0.3813
37 1 0.498059 0.0114631 0.24423
39 1 0.727868 0.0123721 0.265767
40 1 0.901261 0.132162 0.355907
41 1 0.0260757 0.256207 0.230463
42 1 0.136591 0.35304 0.391071
43 1 0.261953 0.247332 0.243747
45 1 0.488301 0.237846 0.256327
47 1 0.722834 0.239362 0.285092
48 1 0.896929 0.365068 0.375904
49 1 0.0213152 0.491387 0.25075
51 1 0.26202 0.478023 0.267372
53 1 0.490273 0.472602 0.283746
55 1 0.710679 0.45939 0.294702
50 1 0.155448 0.65419 0.338828
52 1 0.381608 0.651837 0.356387
59 1 0.280918 0.779171 0.213953
61 1 0.506568 0.776046 0.230719
54 1 0.616462 0.646615 0.376058
63 1 0.741376 0.772374 0.251299
57 1 0.975732 0.726359 0.251146
56 1 0.85021 0.601943 0.375574
58 1 0.131132 0.882356 0.343001
60 1 0.373808 0.887516 0.369557
62 1 0.603718 0.887396 0.391407
64 1 0.903318 0.907339 0.338003
38 1 0.596733 0.115553 0.40975
71 1 0.776271 0.00744632 0.481113
73 1 0.0116281 0.227861 0.516239
44 1 0.365534 0.345995 0.407808
75 1 0.240283 0.221567 0.534381
46 1 0.585354 0.335728 0.419064
77 1 0.460882 0.210508 0.543938
79 1 0.771831 0.24171 0.501864
81 1 0.0304 0.528328 0.462076
83 1 0.256115 0.526366 0.481469
85 1 0.492676 0.521664 0.500688
87 1 0.72583 0.477001 0.500813
80 1 0.905735 0.403612 0.586789
89 1 0.00601804 0.757495 0.467511
91 1 0.248246 0.762517 0.494389
93 1 0.477378 0.761975 0.51627
95 1 0.78 0.782361 0.462778
86 1 0.65425 0.656876 0.587164
88 1 0.881248 0.63177 0.592538
65 1 0.0112975 0.999662 0.493467
67 1 0.237498 0.988461 0.507294
69 1 0.472427 0.989861 0.535058
66 1 0.115335 0.0964356 0.660061
68 1 0.335457 0.0852208 0.668967
70 1 0.646879 0.115829 0.626775
72 1 0.886772 0.104033 0.642376
74 1 0.132014 0.401008 0.605774
105 1 0.00689909 0.276734 0.731187
76 1 0.367434 0.395577 0.624949
107 1 0.241598 0.272258 0.751228
109 1 0.475945 0.226228 0.751181
78 1 0.602089 0.350859 0.626127
111 1 0.780671 0.279258 0.713855
115 1 0.227471 0.512019 0.766486
117 1 0.529026 0.531442 0.712576
119 1 0.756955 0.506383 0.716977
113 1 0.998188 0.511983 0.74407
82 1 0.122663 0.637528 0.618423
84 1 0.352969 0.636666 0.641007
123 1 0.222045 0.739211 0.785424
125 1 0.526579 0.756632 0.730161
127 1 0.761834 0.747958 0.743275
121 1 0.988428 0.737827 0.756994
90 1 0.113116 0.863933 0.632495
99 1 0.211082 0.959072 0.794912
92 1 0.346765 0.865126 0.659201
101 1 0.521521 0.991183 0.751135
103 1 0.761743 0.97786 0.767547
94 1 0.65193 0.881577 0.606277
97 1 0.990473 0.972514 0.784272
96 1 0.886602 0.873789 0.62034
98 1 0.116529 0.146525 0.876378
100 1 0.350339 0.101494 0.876035
5 1 0.531116 0.0283256 0.962238
7 1 0.757159 0.02516 0.981237
102 1 0.655593 0.153817 0.838849
104 1 0.88204 0.151921 0.856404
106 1 0.10341 0.387121 0.892168
11 1 0.279889 0.281665 0.963029
13 1 0.506566 0.25756 0.967736
15 1 0.747602 0.261995 0.994199
110 1 0.6314 0.382554 0.842943
112 1 0.874079 0.387393 0.868878
19 1 0.27577 0.507145 0.980854
21 1 0.511231 0.499199 0.993307
108 1 0.402776 0.406912 0.837654
114 1 0.0966829 0.615241 0.909738
116 1 0.401524 0.632342 0.856133
118 1 0.637225 0.623518 0.86892
120 1 0.862524 0.612918 0.880712
122 1 0.0859209 0.835442 0.920179
124 1 0.397303 0.864636 0.875925
126 1 0.6368 0.852361 0.891836
128 1 0.866334 0.846095 0.908263
