ITEM: TIMESTEP
300
ITEM: NUMBER OF ATOMS
128
ITEM: BOX BOUNDS pp pp pp
7.9970980936073330e-03 1.1472002901906393e+01
7.9970980936073330e-03 1.1472002901906393e+01
7.9970980936073330e-03 1.1472002901906393e+01
ITEM: ATOMS id type xs ys zs
2 1 0.154026 0.156444 0.0876359
4 1 0.381261 0.131457 0.0927037
6 1 0.622873 0.136722 0.118586
1 1 0.992822 0.0217234 0.00124737
8 1 0.853078 0.136596 0.140597
10 1 0.152279 0.381488 0.106623
12 1 0.387055 0.373188 0.119887
14 1 0.612725 0.363146 0.131969
9 1 0.977665 0.261786 0.0165502
16 1 0.847077 0.365511 0.159476
23 1 0.73709 0.488191 0.00663892
22 1 0.614829 0.596416 0.159529
17 1 0.971765 0.489837 0.0356019
24 1 0.834816 0.585538 0.169108
18 1 0.14672 0.615879 0.127031
20 1 0.386587 0.603419 0.142032
27 1 0.272134 0.741497 0.00192778
29 1 0.512593 0.727497 0.0166703
31 1 0.740331 0.721914 0.0345073
25 1 0.960362 0.709688 0.0439392
26 1 0.101678 0.850127 0.12681
3 1 0.226505 0.976735 0.000752637
28 1 0.406261 0.904084 0.0871878
30 1 0.632514 0.900495 0.106072
32 1 0.86701 0.896037 0.125409
33 1 0.0287204 0.0315709 0.212788
34 1 0.137399 0.123307 0.369267
35 1 0.256926 0.00637101 0.217013
36 1 0.362506 0.112138 0.3813
37 1 0.498059 0.0114631 0.24423
39 1 0.727868 0.0123721 0.265767
40 1 0.901261 0.132162 0.355907
41 1 0.0260757 0.256207 0.230463
42 1 0.136591 0.35304 0.391071
43 1 0.261953 0.247332 0.243747
45 1 0.488301 0.237846 0.256327
47 1 0.722834 0.239362 0.285092
48 1 0.896929 0.365068 0.375904
49 1 0.0213152 0.491387 0.25075
51 1 0.26202 0.478023 0.267372
53 1 0.490273 0.472602 0.283746
55 1 0.710679 0.45939 0.294702
50 1 0.155448 0.65419 0.338828
52 1 0.381608 0.651837 0.356387
59 1 0.280918 0.779171 0.213953
61 1 0.506568 0.776046 0.230719
54 1 0.616462 0.646615 0.376058
63 1 0.741376 0.772374 0.251299
57 1 0.975732 0.726359 0.251146
56 1 0.85021 0.601943 0.375574
58 1 0.131132 0.882356 0.343001
60 1 0.373808 0.887516 0.369557
62 1 0.603718 0.887396 0.391407
64 1 0.903318 0.907339 0.338003
38 1 0.596733 0.115553 0.40975
71 1 0.776271 0.00744632 0.481113
73 1 0.0116281 0.227861 0.516239
44 1 0.365534 0.345995 0.407808
75 1 0.240283 0.221567 0.534381
46 1 0.585354 0.335728 0.419064
77 1 0.460882 0.210508 0.543938
79 1 0.771831 0.24171 0.501864
81 1 0.0304 0.528328 0.462076
83 1 0.256115 0.526366 0.481469
85 1 0.492676 0.521664 0.500688
87 1 0.72583 0.477001 0.500813
80 1 0.905735 0.403612 0.586789
89 1 0.00601804 0.757495 0.467511
91 1 0.248246 0.762517 0.494389
93 1 0.477378 0.761975 0.51627
95 1 0.78 0.782361 0.462778
86 1 0.65425 0.656876 0.587164
88 1 0.881248 0.63177 0.592538
65 1 0.0112975 0.999662 0.493467
67 1 0.237498 0.988461 0.507294
69 1 0.472427 0.989861 0.535058
66 1 0.115335 0.0964356 0.660061
68 1 0.335457 0.0852208 0.668967
70 1 0.646879 0.115829 0.626775
72 1 0.886772 0.104033 0.642376
74 1 0.132014 0.401008 0.605774
105 1 0.00689909 0.276734 0.731187
76 1 0.367434 0.395577 0.624949
107 1 0.241598 0.272258 0.751228
109 1 0.475945 0.226228 0.751181
78 1 0.602089 0.350859 0.626127
111 1 0.780671 0.279258 0.713855
115 1 0.227471 0.512019 0.766486
117 1 0.529026 0.531442 0.712576
119 1 0.756955 0.506383 0.716977
113 1 0.998188 0.511983 0.74407
82 1 0.122663 0.637528 0.618423
84 1 0.352969 0.636666 0.641007
123 1 0.222045 0.739211 0.785424
125 1 0.526579 0.756632 0.730161
127 1 0.761834 0.747958 0.743275
121 1 0.988428 0.737827 0.756994
90 1 0.113116 0.863933 0.632495
99 1 0.211082 0.959072 0.794912
92 1 0.346765 0.865126 0.659201
101 1 0.521521 0.991183 0.751135
103 1 0.761743 0.97786 0.767547
94 1 0.65193 0.881577 0.606277
97 1 0.990473 0.972514 0.784272
96 1 0.886602 0.873789 0.62034
98 1 0.116529 0.146525 0.876378
100 1 0.350339 0.101494 0.876035
5 1 0.531116 0.0283256 0.962238
7 1 0.757159 0.02516 0.981237
102 1 0.655593 0.153817 0.838849
104 1 0.88204 0.151921 0.856404
106 1 0.10341 0.387121 0.892168
11 1 0.279889 0.281665 0.963029
13 1 0.506566 0.25756 0.967736
15 1 0.747602 0.261995 0.994199
110 1 0.6314 0.382554 0.842943
112 1 0.874079 0.387393 0.868878
19 1 0.27577 0.507145 0.980854
21 1 0.511231 0.499199 0.993307
108 1 0.402776 0.406912 0.837654
114 1 0.0966829 0.615241 0.909738
116 1 0.401524 0.632342 0.856133
118 1 0.637225 0.623518 0.86892
120 1 0.862524 0.612918 0.880712
122 1 0.0859209 0.835442 0.920179
124 1 0.397303 0.864636 0.875925
126 1 0.6368 0.852361 0.891836
128 1 0.866334 0.846095 0.908263
ITEM: TIMESTEP
400
ITEM: NUMBER OF ATOMS
128
ITEM: BOX BOUNDS pp pp pp
7.9970980936073330e-03 1.1472002901906393e+01
7.9970980936073330e-03 1.1472002901906393e+01
7.9970980936073330e-03 1.1472002901906393e+01
ITEM: ATOMS id type xs ys zs
2 1 0.153267 0.156493 0.0878477
4 1 0.381906 0.1326 0.0927042
6 1 0.623122 0.136 0.12006
1 1 0.991337 0.0220987 0.00104151
8 1 0.853159 0.137121 0.142239
10 1 0.151901 0.381389 0.104879
12 1 0.387034 0.372346 0.118079
14 1 0.612291 0.361893 0.133052
9 1 0.977396 0.261782 0.0162077
16 1 0.847072 0.364338 0.159952
23 1 0.738738 0.487214 0.00666893
22 1 0.61427 0.596344 0.160419
17 1 0.971818 0.489341 0.03369
24 1 0.835509 0.585142 0.169115
18 1 0.147169 0.615509 0.125902
20 1 0.38614 0.602744 0.140999
27 1 0.273061 0.741241 0.0011291
29 1 0.511308 0.728089 0.0163915
31 1 0.739634 0.721407 0.0356316
25 1 0.960797 0.711108 0.044225
26 1 0.102496 0.85225 0.126267
3 1 0.227331 0.977633 0.00130171
28 1 0.406413 0.904884 0.0872422
30 1 0.631394 0.902429 0.105274
32 1 0.866991 0.897269 0.125971
33 1 0.0286924 0.0311541 0.213369
34 1 0.136874 0.123639 0.369119
35 1 0.256097 0.00789738 0.217496
36 1 0.362845 0.113351 0.383064
37 1 0.49705 0.0116837 0.244453
39 1 0.727013 0.0110458 0.266278
40 1 0.902229 0.132109 0.355416
41 1 0.0262494 0.25719 0.230636
42 1 0.135998 0.352581 0.391042
43 1 0.262225 0.248088 0.24446
45 1 0.487515 0.237709 0.257725
47 1 0.722018 0.239456 0.285488
48 1 0.896692 0.366761 0.375876
49 1 0.0220156 0.49095 0.250126
51 1 0.261034 0.477405 0.266346
53 1 0.488659 0.471971 0.285446
55 1 0.710672 0.460114 0.294774
50 1 0.156768 0.654659 0.337194
52 1 0.38149 0.651766 0.355016
59 1 0.281787 0.780101 0.21109
61 1 0.506834 0.776927 0.229652
54 1 0.615861 0.647351 0.376145
63 1 0.740106 0.771996 0.250611
57 1 0.976857 0.727056 0.250632
56 1 0.852159 0.601806 0.375292
58 1 0.131761 0.881712 0.343566
60 1 0.372602 0.88664 0.369005
62 1 0.602582 0.885802 0.391297
64 1 0.904315 0.905983 0.338092
38 1 0.5967 0.114679 0.410204
71 1 0.77678 0.00728106 0.479984
73 1 0.0106686 0.227706 0.516744
44 1 0.364098 0.347787 0.409642
75 1 0.239305 0.221537 0.535808
46 1 0.585138 0.335886 0.419617
77 1 0.460756 0.211689 0.544532
79 1 0.772916 0.241647 0.501261
81 1 0.0311815 0.529386 0.46213
83 1 0.256904 0.526984 0.480935
85 1 0.491307 0.522775 0.501065
87 1 0.726844 0.47775 0.501207
80 1 0.906174 0.405026 0.587388
89 1 0.0076904 0.755363 0.467703
91 1 0.248437 0.760936 0.495351
93 1 0.477448 0.761819 0.51618
95 1 0.779255 0.780954 0.462583
86 1 0.653304 0.656843 0.588087
88 1 0.881537 0.632848 0.593439
65 1 0.0121035 0.998099 0.494263
67 1 0.238575 0.987788 0.507706
69 1 0.472281 0.989196 0.534094
66 1 0.114036 0.096563 0.660736
68 1 0.335607 0.0857343 0.669337
70 1 0.646963 0.116267 0.625791
72 1 0.886436 0.102346 0.641302
74 1 0.131669 0.402373 0.604276
105 1 0.00715073 0.277133 0.729221
76 1 0.366703 0.397799 0.626176
107 1 0.240094 0.271977 0.750763
109 1 0.476822 0.226682 0.750475
78 1 0.602045 0.352457 0.625607
111 1 0.78172 0.280034 0.711143
115 1 0.227133 0.51054 0.7668
117 1 0.528982 0.530795 0.713916
119 1 0.75569 0.507402 0.71784
113 1 0.998873 0.511246 0.744732
82 1 0.123559 0.636121 0.620392
84 1 0.353659 0.636786 0.642788
123 1 0.222504 0.7398 0.785725
125 1 0.526029 0.756841 0.731053
127 1 0.761675 0.748271 0.744646
121 1 0.987485 0.7379 0.758242
90 1 0.11199 0.861874 0.632857
99 1 0.211342 0.960552 0.794601
92 1 0.347557 0.864555 0.659961
101 1 0.522693 0.991157 0.75032
103 1 0.761406 0.977691 0.766219
94 1 0.651885 0.881224 0.604755
97 1 0.989384 0.971631 0.785429
96 1 0.886912 0.872523 0.618855
98 1 0.115338 0.147065 0.876167
100 1 0.35269 0.101359 0.875325
5 1 0.531173 0.0290632 0.962221
7 1 0.757053 0.0265466 0.980958
102 1 0.656764 0.15436 0.83709
104 1 0.881569 0.151802 0.855031
106 1 0.102776 0.385342 0.891396
11 1 0.278798 0.280361 0.962764
13 1 0.508011 0.255714 0.967465
15 1 0.748538 0.260989 0.994618
110 1 0.631819 0.381172 0.842803
112 1 0.873403 0.386292 0.868333
19 1 0.276767 0.506798 0.980019
21 1 0.512749 0.498005 0.994267
108 1 0.403965 0.405683 0.838338
114 1 0.0974196 0.614298 0.910362
116 1 0.401944 0.631786 0.855907
118 1 0.636765 0.62403 0.869035
120 1 0.863208 0.612377 0.882598
122 1 0.0859844 0.836063 0.920049
124 1 0.396826 0.866738 0.876079
126 1 0.636581 0.852922 0.8909
128 1 0.863892 0.847415 0.909402
