ITEM: TIMESTEP
300
ITEM: NUMBER OF ATOMS
128
ITEM: BOX BOUNDS pp pp pp
7.9970980936073330e-03 1.1472002901906393e+01
7.9970980936073330e-03 1.1472002901906393e+01
7.9970980936073330e-03 1.1472002901906393e+01
ITEM: ATOMS id type xs ys zs
2 1 0.154026 0.156444 0.0876359
4 1 0.381261 0.131457 0.0927037
6 1 0.622873 0.136722 0.118586
1 1 0.992822 0.0217234 0.00124737
8 1 0.853078 0.136596 0.140597
10 1 0.152279 0.381488 0.106623
12 1 0.387055 0.373188 0.119887
14 1 0.612725 0.363146 0.131969
9 1 0.977665 0.261786 0.0165502
16 1 0.847077 0.365511 0.159476
23 1 0.73709 0.488191 0.00663892
22 1 0.614829 0.596416 0.159529
17 1 0.971765 0.489837 0.0356019
24 1 0.834816 0.585538 0.169108
18 1 0.14672 0.615879 0.127031
20 1 0.386587 0.603419 0.142032
27 1 0.272134 0.741497 0.00192778
29 1 0.512593 0.727497 0.0166703
31 1 0.740331 0.721914 0.0345073
25 1 0.960362 0.709688 0.0439392
26 1 0.101678 0.850127 0.12681
3 1 0.226505 0.976735 0.000752637
28 1 0.406261 0.904084 0.0871878
30 1 0.632514 0.900495 0.106072
32 1 0.86701 0.896037 0.125409
33 1 0.0287204 0.0315709 0.212788
34 1 0.137399 0.123307 0.369267
35 1 0.256926 0.00637101 0.217013
36 1 0.362506 0.112138 0.3813
37 1 0.498059 0.0114631 0.24423
39 1 0.727868 0.0123721 0.265767
40 1 0.901261 0.132162 0.355907
41 1 0.0260757 0.256207 0.230463
42 1 0.136591 0.35304 0.391071
43 1 0.261953 0.247332 0.243747
45 1 0.488301 0.237846 0.256327
47 1 0.722834 0.239362 0.285092
48 1 0.896929 0.365068 0.375904
49 1 0.0213152 0.491387 0.25075
51 1 0.26202 0.478023 0.267372
53 1 0.490273 0.472602 0.283746
55 1 0.710679 0.45939 0.294702
50 1 0.155448 0.65419 0.338828
52 1 0.381608 0.651837 0.356387
59 1 0.280918 0.779171 0.213953
61 1 0.506568 0.776046 0.230719
54 1 0.616462 0.646615 0.376058
63 1 0.741376 0.772374 0.251299
57 1 0.975732 0.726359 0.251146
56 1 0.85021 0.601943 0.375574
58 1 0.131132 0.882356 0.343001
60 1 0.373808 0.887516 0.369557
62 1 0.603718 0.887396 0.391407
64 1 0.903318 0.907339 0.338003
38 1 0.596733 0.115553 0.40975
71 1 0.776271 0.00744632 0.481113
73 1 0.0116281 0.227861 0.516239
44 1 0.365534 0.345995 0.407808
75 1 0.240283 0.221567 0.534381
46 1 0.585354 0.335728 0.419064
77 1 0.460882 0.210508 0.543938
79 1 0.771831 0.24171 0.501864
81 1 0.0304 0.528328 0.462076
83 1 0.256115 0.526366 0.481469
85 1 0.492676 0.521664 0.500688
87 1 0.72583 0.477001 0.500813
80 1 0.905735 0.403612 0.586789
89 1 0.00601804 0.757495 0.467511
91 1 0.248246 0.762517 0.494389
93 1 0.477378 0.761975 0.51627
95 1 0.78 0.782361 0.462778
86 1 0.65425 0.656876 0.587164
88 1 0.881248 0.63177 0.592538
65 1 0.0112975 0.999662 0.493467
67 1 0.237498 0.988461 0.507294
69 1 0.472427 0.989861 0.535058
66 1 0.115335 0.0964356 0.660061
68 1 0.335457 0.0852208 0.668967
70 1 0.646879 0.115829 0.626775
72 1 0.886772 0.104033 0.642376
74 1 0.132014 0.401008 0.605774
105 1 0.00689909 0.276734 0.731187
76 1 0.367434 0.395577 0.624949
107 1 0.241598 0.272258 0.751228
109 1 0.475945 0.226228 0.751181
78 1 0.602089 0.350859 0.626127
111 1 0.780671 0.279258 0.713855
115 1 0.227471 0.512019 0.766486
117 1 0.529026 0.531442 0.712576
119 1 0.756955 0.506383 0.716977
113 1 0.998188 0.511983 0.74407
82 1 0.122663 0.637528 0.618423
84 1 0.352969 0.636666 0.641007
123 1 0.222045 0.739211 0.785424
125 1 0.526579 0.756632 0.730161
127 1 0.761834 0.747958 0.743275
121 1 0.988428 0.737827 0.756994
90 1 0.113116 0.863933 0.632495
99 1 0.211082 0.959072 0.794912
92 1 0.346765 0.865126 0.659201
101 1 0.521521 0.991183 0.751135
103 1 0.761743 0.97786 0.767547
94 1 0.65193 0.881577 0.606277
97 1 0.990473 0.972514 0.784272
96 1 0.886602 0.873789 0.62034
98 1 0.116529 0.146525 0.876378
100 1 0.350339 0.101494 0.876035
5 1 0.531116 0.0283256 0.962238
7 1 0.757159 0.02516 0.981237
102 1 0.655593 0.153817 0.838849
104 1 0.88204 0.151921 0.856404
106 1 0.10341 0.387121 0.892168
11 1 0.279889 0.281665 0.963029
13 1 0.506566 0.25756 0.967736
15 1 0.747602 0.261995 0.994199
110 1 0.6314 0.382554 0.842943
112 1 0.874079 0.387393 0.868878
19 1 0.27577 0.507145 0.980854
21 1 0.511231 0.499199 0.993307
108 1 0.402776 0.406912 0.837654
114 1 0.0966829 0.615241 0.909738
116 1 0.401524 0.632342 0.856133
118 1 0.637225 0.623518 0.86892
120 1 0.862524 0.612918 0.880712
122 1 0.0859209 0.835442 0.920179
124 1 0.397303 0.864636 0.875925
126 1 0.6368 0.852361 0.891836
128 1 0.866334 0.846095 0.908263
ITEM: TIMESTEP
400
ITEM: NUMBER OF ATOMS
128
ITEM: BOX BOUNDS pp pp pp
7.9970980936073330e-03 1.1472002901906393e+01
7.9970980936073330e-03 1.1472002901906393e+01
7.9970980936073330e-03 1.1472002901906393e+01
ITEM: ATOMS id type xs ys zs
2 1 0.153267 0.156493 0.0878477
4 1 0.381906 0.1326 0.0927042
6 1 0.623122 0.136 0.12006
1 1 0.991337 0.0220987 0.00104151
8 1 0.853159 0.137121 0.142239
10 1 0.151901 0.381389 0.104879
12 1 0.387034 0.372346 0.118079
14 1 0.612291 0.361893 0.133052
9 1 0.977396 0.261782 0.0162077
16 1 0.847072 0.364338 0.159952
23 1 0.738738 0.487214 0.00666893
22 1 0.61427 0.596344 0.160419
17 1 0.971818 0.489341 0.03369
24 1 0.835509 0.585142 0.169115
18 1 0.147169 0.615509 0.125902
20 1 0.38614 0.602744 0.140999
27 1 0.273061 0.741241 0.0011291
29 1 0.511308 0.728089 0.0163915
31 1 0.739634 0.721407 0.0356316
25 1 0.960797 0.711108 0.044225
26 1 0.102496 0.85225 0.126267
3 1 0.227331 0.977633 0.00130171
28 1 0.406413 0.904884 0.0872422
30 1 0.631394 0.902429 0.105274
32 1 0.866991 0.897269 0.125971
33 1 0.0286924 0.0311541 0.213369
34 1 0.136874 0.123639 0.369119
35 1 0.256097 0.00789738 0.217496
36 1 0.362845 0.113351 0.383064
37 1 0.49705 0.0116837 0.244453
39 1 0.727013 0.0110458 0.266278
40 1 0.902229 0.132109 0.355416
41 1 0.0262494 0.25719 0.230636
42 1 0.135998 0.352581 0.391042
43 1 0.262225 0.248088 0.24446
45 1 0.487515 0.237709 0.257725
47 1 0.722018 0.239456 0.285488
48 1 0.896692 0.366761 0.375876
49 1 0.0220156 0.49095 0.250126
51 1 0.261034 0.477405 0.266346
53 1 0.488659 0.471971 0.285446
55 1 0.710672 0.460114 0.294774
50 1 0.156768 0.654659 0.337194
52 1 0.38149 0.651766 0.355016
59 1 0.281787 0.780101 0.21109
61 1 0.506834 0.776927 0.229652
54 1 0.615861 0.647351 0.376145
63 1 0.740106 0.771996 0.250611
57 1 0.976857 0.727056 0.250632
56 1 0.852159 0.601806 0.375292
58 1 0.131761 0.881712 0.343566
60 1 0.372602 0.88664 0.369005
62 1 0.602582 0.885802 0.391297
64 1 0.904315 0.905983 0.338092
38 1 0.5967 0.114679 0.410204
71 1 0.77678 0.00728106 0.479984
73 1 0.0106686 0.227706 0.516744
44 1 0.364098 0.347787 0.409642
75 1 0.239305 0.221537 0.535808
46 1 0.585138 0.335886 0.419617
77 1 0.460756 0.211689 0.544532
79 1 0.772916 0.241647 0.501261
81 1 0.0311815 0.529386 0.46213
83 1 0.256904 0.526984 0.480935
85 1 0.491307 0.522775 0.501065
87 1 0.726844 0.47775 0.501207
80 1 0.906174 0.405026 0.587388
89 1 0.0076904 0.755363 0.467703
91 1 0.248437 0.760936 0.495351
93 1 0.477448 0.761819 0.51618
95 1 0.779255 0.780954 0.462583
86 1 0.653304 0.656843 0.588087
88 1 0.881537 0.632848 0.593439
65 1 0.0121035 0.998099 0.494263
67 1 0.238575 0.987788 0.507706
69 1 0.472281 0.989196 0.534094
66 1 0.114036 0.096563 0.660736
68 1 0.335607 0.0857343 0.669337
70 1 0.646963 0.116267 0.625791
72 1 0.886436 0.102346 0.641302
74 1 0.131669 0.402373 0.604276
105 1 0.00715073 0.277133 0.729221
76 1 0.366703 0.397799 0.626176
107 1 0.240094 0.271977 0.750763
109 1 0.476822 0.226682 0.750475
78 1 0.602045 0.352457 0.625607
111 1 0.78172 0.280034 0.711143
115 1 0.227133 0.51054 0.7668
117 1 0.528982 0.530795 0.713916
119 1 0.75569 0.507402 0.71784
113 1 0.998873 0.511246 0.744732
82 1 0.123559 0.636121 0.620392
84 1 0.353659 0.636786 0.642788
123 1 0.222504 0.7398 0.785725
125 1 0.526029 0.756841 0.731053
127 1 0.761675 0.748271 0.744646
121 1 0.987485 0.7379 0.758242
90 1 0.11199 0.861874 0.632857
99 1 0.211342 0.960552 0.794601
92 1 0.347557 0.864555 0.659961
101 1 0.522693 0.991157 0.75032
103 1 0.761406 0.977691 0.766219
94 1 0.651885 0.881224 0.604755
97 1 0.989384 0.971631 0.785429
96 1 0.886912 0.872523 0.618855
98 1 0.115338 0.147065 0.876167
100 1 0.35269 0.101359 0.875325
5 1 0.531173 0.0290632 0.962221
7 1 0.757053 0.0265466 0.980958
102 1 0.656764 0.15436 0.83709
104 1 0.881569 0.151802 0.855031
106 1 0.102776 0.385342 0.891396
11 1 0.278798 0.280361 0.962764
13 1 0.508011 0.255714 0.967465
15 1 0.748538 0.260989 0.994618
110 1 0.631819 0.381172 0.842803
112 1 0.873403 0.386292 0.868333
19 1 0.276767 0.506798 0.980019
21 1 0.512749 0.498005 0.994267
108 1 0.403965 0.405683 0.838338
114 1 0.0974196 0.614298 0.910362
116 1 0.401944 0.631786 0.855907
118 1 0.636765 0.62403 0.869035
120 1 0.863208 0.612377 0.882598
122 1 0.0859844 0.836063 0.920049
124 1 0.396826 0.866738 0.876079
126 1 0.636581 0.852922 0.8909
128 1 0.863892 0.847415 0.909402
ITEM: TIMESTEP
500
ITEM: NUMBER OF ATOMS
128
ITEM: BOX BOUNDS pp pp pp
7.9970980936073330e-03 1.1472002901906393e+01
7.9970980936073330e-03 1.1472002901906393e+01
7.9970980936073330e-03 1.1472002901906393e+01
ITEM: ATOMS id type xs ys zs
2 1 0.154159 0.154747 0.0880399
4 1 0.381012 0.131754 0.0931077
6 1 0.624153 0.137615 0.118219
1 1 0.991352 0.0211426 0.000855896
8 1 0.853079 0.136366 0.140138
10 1 0.151748 0.381012 0.10598
12 1 0.38681 0.373487 0.119609
14 1 0.614277 0.363103 0.131604
9 1 0.978604 0.262357 0.0166903
16 1 0.846702 0.365375 0.159092
23 1 0.738044 0.489084 0.00628152
22 1 0.614738 0.596956 0.160142
17 1 0.971853 0.490135 0.03416
24 1 0.834744 0.585345 0.169775
18 1 0.147922 0.617053 0.126204
20 1 0.386807 0.602795 0.14224
27 1 0.273033 0.741258 0.00205393
29 1 0.511946 0.727916 0.0165545
31 1 0.73998 0.722032 0.0350569
25 1 0.959695 0.709742 0.0448448
26 1 0.10195 0.851351 0.125929
3 1 0.226999 0.975903 0.000585461
28 1 0.406007 0.903931 0.0876575
30 1 0.631833 0.900912 0.106143
32 1 0.866804 0.896574 0.125666
33 1 0.0289552 0.0306811 0.212336
34 1 0.135379 0.122863 0.368602
35 1 0.256768 0.00690832 0.217653
36 1 0.362913 0.1133 0.382141
37 1 0.498293 0.0127147 0.243224
39 1 0.727892 0.0116428 0.265904
40 1 0.900865 0.131481 0.355126
41 1 0.0261337 0.256926 0.23031
42 1 0.135957 0.352426 0.390886
43 1 0.261693 0.248326 0.244345
45 1 0.489182 0.238085 0.256775
47 1 0.72283 0.239412 0.284701
48 1 0.8971 0.367736 0.375835
49 1 0.0221462 0.491725 0.250895
51 1 0.261311 0.477277 0.266709
53 1 0.490178 0.471323 0.284954
55 1 0.710095 0.46031 0.294131
50 1 0.155361 0.653364 0.338489
52 1 0.381512 0.651416 0.356858
59 1 0.281033 0.779148 0.213851
61 1 0.505446 0.776402 0.231047
54 1 0.615878 0.647603 0.375625
63 1 0.741433 0.773178 0.251076
57 1 0.977088 0.726054 0.251278
56 1 0.851015 0.602123 0.376248
58 1 0.131414 0.882507 0.343144
60 1 0.373889 0.888165 0.369053
62 1 0.602889 0.887266 0.391032
64 1 0.904165 0.906019 0.336846
38 1 0.597718 0.114892 0.409901
71 1 0.776738 0.00624809 0.481013
73 1 0.0116286 0.227845 0.516263
44 1 0.364707 0.346574 0.409872
75 1 0.239502 0.221825 0.534502
46 1 0.586202 0.334969 0.419826
77 1 0.459427 0.209745 0.54464
79 1 0.772726 0.241284 0.50169
81 1 0.0309816 0.529256 0.463497
83 1 0.256654 0.525148 0.481038
85 1 0.491206 0.521249 0.500888
87 1 0.727035 0.476176 0.500429
80 1 0.905937 0.404348 0.587751
89 1 0.00575711 0.757242 0.468407
91 1 0.248494 0.76292 0.493403
93 1 0.478629 0.762459 0.516231
95 1 0.778726 0.781383 0.462378
86 1 0.654029 0.654742 0.587747
88 1 0.880859 0.631854 0.592714
65 1 0.0108476 0.998619 0.494333
67 1 0.237912 0.988623 0.506475
69 1 0.471818 0.99013 0.534856
66 1 0.114753 0.0972764 0.660293
68 1 0.335055 0.0851981 0.669614
70 1 0.647654 0.116516 0.626355
72 1 0.886122 0.102382 0.642535
74 1 0.131915 0.400703 0.605573
105 1 0.00583084 0.276112 0.730699
76 1 0.366219 0.396203 0.625861
107 1 0.241135 0.272488 0.751246
109 1 0.477543 0.226079 0.751534
78 1 0.602066 0.350893 0.625878
111 1 0.781164 0.279763 0.713893
115 1 0.227869 0.511676 0.766243
117 1 0.529111 0.530432 0.712572
119 1 0.756819 0.507225 0.717688
113 1 0.998313 0.512336 0.743078
82 1 0.12429 0.637906 0.617932
84 1 0.352749 0.636789 0.64026
123 1 0.222423 0.739256 0.784883
125 1 0.526437 0.756827 0.729975
127 1 0.761524 0.748663 0.744524
121 1 0.988777 0.738344 0.756667
90 1 0.113734 0.862939 0.631521
99 1 0.210493 0.960406 0.794306
92 1 0.346765 0.864975 0.659136
101 1 0.522472 0.991339 0.750958
103 1 0.760735 0.976888 0.766789
94 1 0.651855 0.88119 0.60531
97 1 0.990343 0.971517 0.785607
96 1 0.886876 0.873896 0.619935
98 1 0.116257 0.147474 0.876233
100 1 0.351247 0.10208 0.876047
5 1 0.531186 0.0290375 0.963667
7 1 0.756703 0.0252387 0.980963
102 1 0.655949 0.153519 0.838225
104 1 0.881164 0.151302 0.857164
106 1 0.103084 0.38713 0.891233
11 1 0.278618 0.281651 0.962256
13 1 0.50578 0.257435 0.968462
15 1 0.748816 0.263191 0.993711
110 1 0.63142 0.382594 0.84311
112 1 0.874115 0.388361 0.869052
19 1 0.277054 0.505816 0.981138
21 1 0.511458 0.498661 0.993971
108 1 0.40426 0.406001 0.836933
114 1 0.0972863 0.614701 0.910064
116 1 0.400762 0.6313 0.855371
118 1 0.635681 0.623394 0.868856
120 1 0.862772 0.613265 0.881605
122 1 0.0860563 0.834353 0.919837
124 1 0.397156 0.867171 0.875752
126 1 0.63618 0.852398 0.891422
128 1 0.865359 0.845851 0.910508
ITEM: TIMESTEP
600
ITEM: NUMBER OF ATOMS
128
ITEM: BOX BOUNDS pp pp pp
7.9970980936073330e-03 1.1472002901906393e+01
7.9970980936073330e-03 1.1472002901906393e+01
7.9970980936073330e-03 1.1472002901906393e+01
ITEM: ATOMS id type xs ys zs
2 1 0.153175 0.155808 0.0882732
4 1 0.381679 0.131711 0.0935249
6 1 0.624534 0.136907 0.120082
1 1 0.991006 0.0217346 0.00151497
8 1 0.852935 0.136903 0.14205
10 1 0.150717 0.38212 0.105176
12 1 0.387035 0.372692 0.118302
14 1 0.613647 0.363281 0.132079
9 1 0.977744 0.261776 0.016
16 1 0.847141 0.365117 0.160047
23 1 0.738144 0.487837 0.00650781
22 1 0.61463 0.596863 0.159903
17 1 0.972274 0.489772 0.0345297
24 1 0.835089 0.585176 0.169523
18 1 0.147911 0.616278 0.125597
20 1 0.386559 0.602335 0.141013
27 1 0.272483 0.741654 0.000662746
29 1 0.511446 0.728376 0.0156112
31 1 0.73977 0.721695 0.0346872
25 1 0.960385 0.709204 0.0450464
26 1 0.101287 0.850752 0.126611
3 1 0.225377 0.976836 0.00156948
28 1 0.406154 0.905617 0.0872213
30 1 0.631604 0.902292 0.105773
32 1 0.865918 0.896414 0.126433
33 1 0.0289188 0.030058 0.213504
34 1 0.137176 0.12398 0.36921
35 1 0.256117 0.00674778 0.217933
36 1 0.363155 0.1135 0.381154
37 1 0.49911 0.0121022 0.244458
39 1 0.727936 0.0112625 0.266964
40 1 0.901337 0.131559 0.355915
41 1 0.0269143 0.256783 0.231062
42 1 0.136488 0.352712 0.391327
43 1 0.261617 0.248202 0.243368
45 1 0.487591 0.238598 0.256707
47 1 0.72243 0.240606 0.284933
48 1 0.89756 0.366683 0.375898
49 1 0.0225982 0.491746 0.250828
51 1 0.261831 0.477578 0.265643
53 1 0.489733 0.471946 0.284533
55 1 0.710432 0.46087 0.294682
50 1 0.157121 0.654168 0.337002
52 1 0.381731 0.651301 0.354966
59 1 0.281821 0.779756 0.211778
61 1 0.506341 0.776604 0.229804
54 1 0.615565 0.646837 0.375764
63 1 0.74036 0.772918 0.251527
57 1 0.976065 0.725466 0.251837
56 1 0.851874 0.601907 0.37671
58 1 0.132159 0.880836 0.342682
60 1 0.37339 0.887444 0.369005
62 1 0.601891 0.886498 0.391878
64 1 0.904569 0.905365 0.339116
38 1 0.596846 0.115346 0.409412
71 1 0.775602 0.00585631 0.480475
73 1 0.0123908 0.228455 0.516263
44 1 0.364613 0.346452 0.410339
75 1 0.239696 0.221858 0.534625
46 1 0.584867 0.335157 0.420087
77 1 0.460527 0.209314 0.545027
79 1 0.772319 0.241657 0.500395
81 1 0.0323437 0.529908 0.462555
83 1 0.256959 0.526204 0.480431
85 1 0.49109 0.521598 0.501363
87 1 0.725386 0.477418 0.501564
80 1 0.906132 0.405376 0.58762
89 1 0.00746088 0.75589 0.468339
91 1 0.24873 0.761622 0.494041
93 1 0.477816 0.761332 0.515887
95 1 0.777912 0.780405 0.46266
86 1 0.653061 0.655882 0.588183
88 1 0.881489 0.631576 0.593574
65 1 0.0124154 0.998854 0.493825
67 1 0.238322 0.987903 0.506753
69 1 0.47175 0.989972 0.534698
66 1 0.115154 0.0967713 0.659685
68 1 0.335182 0.0846815 0.669703
70 1 0.647611 0.11667 0.62585
72 1 0.886483 0.102826 0.640631
74 1 0.131751 0.402431 0.606008
105 1 0.00659677 0.276814 0.730006
76 1 0.366017 0.396797 0.626126
107 1 0.240711 0.272711 0.751232
109 1 0.475933 0.22549 0.751936
78 1 0.601022 0.350692 0.627168
111 1 0.781742 0.279352 0.711895
115 1 0.227689 0.510917 0.767127
117 1 0.528749 0.529959 0.713416
119 1 0.756142 0.507535 0.718244
113 1 0.99869 0.512439 0.74467
82 1 0.124119 0.637154 0.619978
84 1 0.353013 0.636232 0.641526
123 1 0.222171 0.740037 0.784514
125 1 0.526391 0.756522 0.731202
127 1 0.761519 0.748552 0.743336
121 1 0.987975 0.738643 0.756714
90 1 0.113375 0.8631 0.632546
99 1 0.210038 0.960237 0.794793
92 1 0.346976 0.864807 0.659762
101 1 0.522951 0.992045 0.750703
103 1 0.76188 0.978435 0.765878
94 1 0.650549 0.88174 0.605675
97 1 0.989806 0.972145 0.784304
96 1 0.886984 0.873238 0.617934
98 1 0.115513 0.147118 0.875646
100 1 0.351663 0.101606 0.87671
5 1 0.532066 0.0301651 0.962806
7 1 0.757111 0.0265 0.980461
102 1 0.656757 0.154375 0.83728
104 1 0.882352 0.151574 0.85537
106 1 0.102152 0.386668 0.891533
11 1 0.277804 0.280297 0.962634
13 1 0.507649 0.256046 0.968341
15 1 0.749644 0.261286 0.994069
110 1 0.632681 0.380956 0.842959
112 1 0.873241 0.387495 0.868647
19 1 0.276085 0.506075 0.980247
21 1 0.511943 0.498782 0.993684
108 1 0.404508 0.404913 0.838791
114 1 0.0970901 0.615062 0.909576
116 1 0.400897 0.631455 0.85548
118 1 0.636845 0.623902 0.869223
120 1 0.862987 0.61411 0.88131
122 1 0.0847639 0.835217 0.920004
124 1 0.397271 0.866472 0.875732
126 1 0.636684 0.853114 0.890963
128 1 0.864869 0.846622 0.909926
ITEM: TIMESTEP
700
ITEM: NUMBER OF ATOMS
128
ITEM: BOX BOUNDS pp pp pp
7.9970980936073330e-03 1.1472002901906393e+01
7.9970980936073330e-03 1.1472002901906393e+01
7.9970980936073330e-03 1.1472002901906393e+01
ITEM: ATOMS id type xs ys zs
2 1 0.154401 0.156331 0.0876007
4 1 0.381938 0.132192 0.0934107
6 1 0.62364 0.137116 0.118678
1 1 0.991324 0.0212141 0.000769316
8 1 0.85343 0.13705 0.14047
10 1 0.151769 0.381821 0.104685
12 1 0.386067 0.372688 0.119915
14 1 0.61263 0.362624 0.132368
9 1 0.978055 0.261816 0.0152189
16 1 0.847299 0.364636 0.160312
23 1 0.737238 0.488646 0.00752843
22 1 0.61374 0.59699 0.160411
17 1 0.971907 0.489966 0.0354498
24 1 0.834878 0.584969 0.169968
18 1 0.147702 0.615837 0.125936
20 1 0.3862 0.602109 0.142316
27 1 0.273089 0.740673 0.0011777
29 1 0.510604 0.728004 0.0167758
31 1 0.738876 0.721304 0.0345275
25 1 0.960413 0.710039 0.0447417
26 1 0.101134 0.85103 0.126767
3 1 0.225561 0.976709 0.00164767
28 1 0.405912 0.904942 0.0876014
30 1 0.631251 0.902023 0.104709
32 1 0.865724 0.896997 0.125368
33 1 0.0299354 0.0306644 0.211861
34 1 0.135464 0.123883 0.368405
35 1 0.256992 0.00717748 0.218934
36 1 0.363244 0.113732 0.382558
37 1 0.498827 0.0122625 0.244425
39 1 0.728316 0.0110797 0.265437
40 1 0.902607 0.131801 0.354696
41 1 0.0272855 0.256998 0.229086
42 1 0.135632 0.352369 0.391467
43 1 0.261689 0.24865 0.244831
45 1 0.488308 0.237379 0.257671
47 1 0.722681 0.239365 0.284958
48 1 0.8969 0.365588 0.37561
49 1 0.0223158 0.490606 0.250872
51 1 0.261138 0.477594 0.26704
53 1 0.489744 0.471305 0.285633
55 1 0.710096 0.459956 0.294705
50 1 0.156149 0.654718 0.33796
52 1 0.382126 0.651908 0.355247
59 1 0.281119 0.779537 0.213118
61 1 0.507273 0.778196 0.230429
54 1 0.6161 0.647347 0.376245
63 1 0.740782 0.772143 0.250629
57 1 0.975844 0.72603 0.251784
56 1 0.850977 0.601393 0.376033
58 1 0.131316 0.881959 0.343377
60 1 0.37471 0.888046 0.369238
62 1 0.603441 0.88692 0.391835
64 1 0.90447 0.906225 0.33637
38 1 0.598035 0.114068 0.410659
71 1 0.777923 0.00707865 0.480251
73 1 0.0106499 0.228115 0.517117
44 1 0.364413 0.34706 0.410367
75 1 0.238913 0.22071 0.533869
46 1 0.585774 0.334295 0.420389
77 1 0.460021 0.209988 0.544777
79 1 0.773048 0.240602 0.501386
81 1 0.0306597 0.529396 0.461999
83 1 0.256195 0.527062 0.480442
85 1 0.491226 0.521545 0.500837
87 1 0.725431 0.47653 0.501559
80 1 0.906297 0.405332 0.587431
89 1 0.00637327 0.758296 0.468269
91 1 0.249065 0.761918 0.493549
93 1 0.478022 0.76246 0.515532
95 1 0.77903 0.781133 0.462852
86 1 0.653981 0.656432 0.587438
88 1 0.882214 0.632181 0.59283
65 1 0.011417 0.997601 0.494887
67 1 0.237236 0.988763 0.506723
69 1 0.471932 0.989928 0.535395
66 1 0.113906 0.0965464 0.660176
68 1 0.334822 0.0845699 0.669736
70 1 0.647543 0.115991 0.62632
72 1 0.885956 0.102485 0.641928
74 1 0.13126 0.401876 0.60482
105 1 0.00734737 0.277574 0.730073
76 1 0.365777 0.397265 0.625594
107 1 0.241196 0.271778 0.75066
109 1 0.475883 0.226105 0.751357
78 1 0.601651 0.35081 0.626907
111 1 0.781768 0.279813 0.712554
115 1 0.228447 0.51132 0.765483
117 1 0.530548 0.531142 0.711569
119 1 0.756946 0.507003 0.718668
113 1 0.998482 0.51208 0.74488
82 1 0.123791 0.636711 0.61878
84 1 0.353541 0.63718 0.640349
123 1 0.222966 0.739436 0.784726
125 1 0.527476 0.756653 0.729535
127 1 0.761541 0.747917 0.745081
121 1 0.987751 0.737052 0.757257
90 1 0.112506 0.862903 0.632429
99 1 0.209794 0.960092 0.794746
92 1 0.347254 0.864509 0.660486
101 1 0.522066 0.991059 0.750763
103 1 0.761377 0.977461 0.766913
94 1 0.651775 0.882025 0.605234
97 1 0.989205 0.97156 0.785539
96 1 0.885781 0.872932 0.619528
98 1 0.116326 0.146808 0.876417
100 1 0.350815 0.101638 0.876342
5 1 0.530625 0.0292939 0.961917
7 1 0.756343 0.0270296 0.980233
102 1 0.656635 0.155347 0.837827
104 1 0.882338 0.151963 0.85522
106 1 0.10334 0.386651 0.89157
11 1 0.279141 0.281255 0.962586
13 1 0.506051 0.25776 0.968262
15 1 0.749099 0.262059 0.993968
110 1 0.631666 0.381926 0.843585
112 1 0.873971 0.387677 0.86934
19 1 0.278008 0.506522 0.98013
21 1 0.511463 0.497606 0.994781
108 1 0.405089 0.406405 0.835968
114 1 0.0982628 0.614309 0.909904
116 1 0.40289 0.631612 0.854306
118 1 0.635714 0.62376 0.869055
120 1 0.86316 0.613986 0.882938
122 1 0.0855142 0.834239 0.919892
124 1 0.396931 0.866099 0.875394
126 1 0.635834 0.852404 0.890959
128 1 0.864303 0.846752 0.909949
ITEM: TIMESTEP
800
ITEM: NUMBER OF ATOMS
128
ITEM: BOX BOUNDS pp pp pp
7.9970980936073330e-03 1.1472002901906393e+01
7.9970980936073330e-03 1.1472002901906393e+01
7.9970980936073330e-03 1.1472002901906393e+01
ITEM: ATOMS id type xs ys zs
2 1 0.153963 0.155826 0.0872283
4 1 0.381047 0.131626 0.0927571
6 1 0.623671 0.136374 0.119599
1 1 0.991257 0.021969 0.00182308
8 1 0.852555 0.136663 0.142136
10 1 0.150048 0.382389 0.105793
12 1 0.386941 0.373635 0.118544
14 1 0.613537 0.36335 0.131628
9 1 0.977499 0.261774 0.0164144
16 1 0.847047 0.365007 0.160245
23 1 0.738351 0.487567 0.00669917
22 1 0.615062 0.596947 0.159534
17 1 0.971 0.489712 0.0345222
24 1 0.83394 0.584558 0.170282
18 1 0.14835 0.616104 0.125195
20 1 0.387149 0.603974 0.140835
27 1 0.271236 0.741944 0.000556789
29 1 0.512215 0.729067 0.0161422
31 1 0.740244 0.722346 0.0348632
25 1 0.96019 0.709147 0.0455297
26 1 0.100213 0.850926 0.127198
3 1 0.225559 0.974926 0.00127103
28 1 0.405854 0.904732 0.0871702
30 1 0.632332 0.901646 0.105876
32 1 0.866284 0.897026 0.126699
33 1 0.0296568 0.0316442 0.213365
34 1 0.137 0.123873 0.369615
35 1 0.256518 0.00659448 0.218123
36 1 0.362561 0.113165 0.381555
37 1 0.498391 0.0116702 0.243687
39 1 0.72829 0.0106126 0.267581
40 1 0.901446 0.131422 0.356394
41 1 0.0269657 0.257199 0.230466
42 1 0.136742 0.353555 0.391868
43 1 0.26138 0.248971 0.243947
45 1 0.487714 0.238801 0.256184
47 1 0.722303 0.239872 0.284687
48 1 0.897314 0.366741 0.37578
49 1 0.0221872 0.49221 0.250735
51 1 0.261736 0.477775 0.265889
53 1 0.489754 0.471772 0.284136
55 1 0.709587 0.459765 0.295227
50 1 0.157366 0.654828 0.336389
52 1 0.38209 0.652107 0.355677
59 1 0.282226 0.780369 0.212267
61 1 0.506696 0.776462 0.23011
54 1 0.616272 0.646338 0.376063
63 1 0.74162 0.77171 0.251586
57 1 0.975861 0.724868 0.251882
56 1 0.850976 0.600525 0.376905
58 1 0.131758 0.882004 0.342924
60 1 0.373018 0.88658 0.368901
62 1 0.602279 0.887035 0.391315
64 1 0.904707 0.904823 0.338093
38 1 0.596723 0.114964 0.40875
71 1 0.776427 0.00595884 0.48133
73 1 0.0121139 0.229061 0.515783
44 1 0.364858 0.347115 0.410049
75 1 0.239962 0.221889 0.535245
46 1 0.584408 0.334352 0.420419
77 1 0.459826 0.209416 0.54527
79 1 0.771243 0.242358 0.500276
81 1 0.0321735 0.529928 0.462938
83 1 0.257344 0.526933 0.479993
85 1 0.491549 0.521893 0.501519
87 1 0.725877 0.47509 0.50174
80 1 0.906031 0.40486 0.587265
89 1 0.00680992 0.755972 0.468071
91 1 0.248411 0.762224 0.493727
93 1 0.477128 0.762129 0.516979
95 1 0.778389 0.78124 0.462825
86 1 0.653841 0.655373 0.587633
88 1 0.881266 0.632095 0.5928
65 1 0.0126549 0.999231 0.493777
67 1 0.238318 0.987834 0.506213
69 1 0.471488 0.990359 0.534317
66 1 0.114832 0.0966352 0.659862
68 1 0.333508 0.0843826 0.670566
70 1 0.647771 0.11625 0.625268
72 1 0.887155 0.103056 0.639732
74 1 0.132485 0.401845 0.605881
105 1 0.00665822 0.276351 0.72971
76 1 0.366298 0.397016 0.626639
107 1 0.241906 0.271608 0.751126
109 1 0.476087 0.224524 0.751781
78 1 0.600629 0.350627 0.627059
111 1 0.78241 0.279776 0.711983
115 1 0.228436 0.511296 0.767042
117 1 0.529713 0.531181 0.713698
119 1 0.756595 0.506851 0.71809
113 1 0.998523 0.512242 0.743847
82 1 0.123402 0.636821 0.619479
84 1 0.352743 0.63688 0.641606
123 1 0.22198 0.739512 0.784837
125 1 0.527201 0.75751 0.730733
127 1 0.761805 0.748596 0.743394
121 1 0.987887 0.738467 0.755959
90 1 0.114064 0.863384 0.631384
99 1 0.209549 0.959278 0.794833
92 1 0.346996 0.865446 0.660126
101 1 0.52255 0.992123 0.750861
103 1 0.76177 0.977684 0.765673
94 1 0.650278 0.881966 0.605948
97 1 0.989486 0.971774 0.784087
96 1 0.887303 0.873593 0.617977
98 1 0.116175 0.146435 0.87586
100 1 0.350604 0.100365 0.877023
5 1 0.53205 0.0302368 0.962588
7 1 0.757002 0.0266777 0.98028
102 1 0.657468 0.1549 0.83691
104 1 0.882122 0.151573 0.855241
106 1 0.10257 0.386935 0.891154
11 1 0.278163 0.28172 0.962671
13 1 0.506974 0.255825 0.968645
15 1 0.748522 0.262023 0.993957
110 1 0.632024 0.38203 0.843136
112 1 0.873217 0.386698 0.868432
19 1 0.277093 0.506297 0.981356
21 1 0.512637 0.498758 0.993908
108 1 0.404486 0.405116 0.838185
114 1 0.0969363 0.614473 0.909255
116 1 0.401574 0.632022 0.855988
118 1 0.63751 0.623663 0.869755
120 1 0.862859 0.613217 0.881975
122 1 0.0844741 0.834057 0.920229
124 1 0.397171 0.867047 0.875956
126 1 0.636807 0.853592 0.891448
128 1 0.864738 0.846864 0.910055
ITEM: TIMESTEP
900
ITEM: NUMBER OF ATOMS
128
ITEM: BOX BOUNDS pp pp pp
7.9970980936073330e-03 1.1472002901906393e+01
7.9970980936073330e-03 1.1472002901906393e+01
7.9970980936073330e-03 1.1472002901906393e+01
ITEM: ATOMS id type xs ys zs
2 1 0.155378 0.156283 0.0880985
4 1 0.381218 0.131576 0.0930819
6 1 0.623887 0.137392 0.11777
1 1 0.991597 0.0223895 0.00086932
8 1 0.853477 0.136894 0.140185
10 1 0.152608 0.382762 0.105222
12 1 0.387594 0.374024 0.119433
14 1 0.613022 0.363398 0.132198
9 1 0.97869 0.261504 0.0161991
16 1 0.846824 0.364507 0.160299
23 1 0.73776 0.488434 0.0067001
22 1 0.613793 0.597911 0.160789
17 1 0.971455 0.489188 0.0353354
24 1 0.83423 0.584423 0.170367
18 1 0.147833 0.616996 0.126377
20 1 0.386773 0.602543 0.140602
27 1 0.272579 0.741642 0.000909096
29 1 0.510607 0.728191 0.0157404
31 1 0.738991 0.720958 0.0352787
25 1 0.959118 0.709409 0.0453622
26 1 0.101292 0.850495 0.126261
3 1 0.226781 0.975838 0.00107234
28 1 0.405832 0.904395 0.0885705
30 1 0.632015 0.901692 0.10522
32 1 0.865658 0.897499 0.125327
33 1 0.0290091 0.0309996 0.211634
34 1 0.136649 0.123671 0.368298
35 1 0.256147 0.00674872 0.218922
36 1 0.363845 0.112694 0.38179
37 1 0.499307 0.0123897 0.243853
39 1 0.727942 0.0114952 0.265772
40 1 0.902321 0.13161 0.354712
41 1 0.0270852 0.257534 0.229684
42 1 0.136515 0.352274 0.39127
43 1 0.261986 0.248712 0.244469
45 1 0.488718 0.236948 0.256628
47 1 0.721821 0.238971 0.284853
48 1 0.897003 0.365871 0.375686
49 1 0.0226461 0.491616 0.251292
51 1 0.261028 0.477723 0.26682
53 1 0.489549 0.471173 0.285428
55 1 0.709304 0.459865 0.294874
50 1 0.155702 0.655731 0.338019
52 1 0.381725 0.650774 0.354339
59 1 0.280886 0.779181 0.213673
61 1 0.507 0.777395 0.230405
54 1 0.616307 0.646965 0.375568
63 1 0.7412 0.772478 0.251335
57 1 0.975963 0.725947 0.251631
56 1 0.851138 0.60209 0.376485
58 1 0.131053 0.882515 0.342884
60 1 0.374565 0.886631 0.368324
62 1 0.603762 0.887223 0.391292
64 1 0.90443 0.906422 0.337037
38 1 0.597401 0.114125 0.410899
71 1 0.77793 0.00709791 0.480551
73 1 0.0109081 0.228762 0.515915
44 1 0.364541 0.346624 0.410471
75 1 0.238974 0.2205 0.535523
46 1 0.584314 0.333711 0.420142
77 1 0.459446 0.209264 0.545141
79 1 0.772515 0.241015 0.500756
81 1 0.0303708 0.528437 0.462776
83 1 0.256326 0.526529 0.479617
85 1 0.491968 0.522504 0.500775
87 1 0.726727 0.475633 0.501007
80 1 0.905611 0.404246 0.588061
89 1 0.00587309 0.756999 0.468418
91 1 0.249633 0.762425 0.493606
93 1 0.478463 0.76159 0.51583
95 1 0.779651 0.781517 0.46295
86 1 0.655087 0.656384 0.587738
88 1 0.881146 0.631189 0.593664
65 1 0.0119766 0.999627 0.494583
67 1 0.237571 0.988378 0.507122
69 1 0.471836 0.989 0.535204
66 1 0.113943 0.0974296 0.660542
68 1 0.334838 0.0845194 0.670739
70 1 0.647813 0.116495 0.626729
72 1 0.887209 0.102923 0.641519
74 1 0.131643 0.401752 0.605064
105 1 0.00716976 0.277403 0.730571
76 1 0.365704 0.397804 0.625689
107 1 0.241001 0.27285 0.751213
109 1 0.475286 0.226092 0.751558
78 1 0.601661 0.350392 0.626136
111 1 0.780716 0.279016 0.713452
115 1 0.227489 0.511407 0.765975
117 1 0.529033 0.530583 0.711824
119 1 0.75615 0.506157 0.719062
113 1 0.998962 0.511913 0.743777
82 1 0.123323 0.637227 0.61775
84 1 0.353305 0.636906 0.640916
123 1 0.222165 0.73931 0.784555
125 1 0.527374 0.757167 0.730327
127 1 0.761377 0.748816 0.744346
121 1 0.988646 0.737189 0.756741
90 1 0.112611 0.863268 0.632293
99 1 0.209636 0.96037 0.794809
92 1 0.346855 0.864316 0.659639
101 1 0.52257 0.991396 0.751504
103 1 0.760967 0.977798 0.766898
94 1 0.652024 0.882574 0.605482
97 1 0.98985 0.971754 0.7853
96 1 0.887594 0.874011 0.619771
98 1 0.116085 0.147657 0.876125
100 1 0.35056 0.102612 0.876314
5 1 0.529869 0.0284765 0.962954
7 1 0.756256 0.026454 0.979784
102 1 0.655721 0.155596 0.838527
104 1 0.881583 0.151298 0.855008
106 1 0.103455 0.387044 0.891904
11 1 0.279671 0.281491 0.962916